# Force coefficients
# liftDir     : (0.000000e+00 1.000000e+00 0.000000e+00)
# dragDir     : (1.000000e+00 0.000000e+00 0.000000e+00)
# pitchAxis   : (0.000000e+00 0.000000e+00 1.000000e+00)
# magUInf     : 1.000000e+00
# lRef        : 2.000000e+00
# Aref        : 4.000000e+00
# CofR        : (0.000000e+00 0.000000e+00 0.000000e+00)
# Time        	Cm            	Cd            	Cl            	Cl(f)         	Cl(r)         
200           	-1.091401e-03	1.109009e+00	7.505739e-02	3.643729e-02	3.862009e-02
200.01        	-1.098321e-03	1.108852e+00	7.559848e-02	3.670092e-02	3.889756e-02
200.02        	-1.105234e-03	1.108643e+00	7.694275e-02	3.736614e-02	3.957661e-02
200.03        	-1.112136e-03	1.108319e+00	7.792222e-02	3.784897e-02	4.007325e-02
200.04        	-1.119026e-03	1.107870e+00	7.890935e-02	3.833565e-02	4.057370e-02
200.05        	-1.125902e-03	1.107337e+00	7.989821e-02	3.882321e-02	4.107501e-02
200.06        	-1.132764e-03	1.106690e+00	8.085576e-02	3.929511e-02	4.156064e-02
200.07        	-1.139612e-03	1.105883e+00	8.180455e-02	3.976266e-02	4.204189e-02
200.08        	-1.146448e-03	1.108752e+00	8.247125e-02	4.008918e-02	4.238207e-02
200.09        	-1.153275e-03	1.111795e+00	8.313241e-02	4.041293e-02	4.271948e-02
200.1         	-1.160095e-03	1.113150e+00	8.392314e-02	4.080148e-02	4.312166e-02
200.11        	-1.166907e-03	1.113798e+00	8.476447e-02	4.121533e-02	4.354914e-02
200.12        	-1.173712e-03	1.114153e+00	8.562665e-02	4.163962e-02	4.398704e-02
200.13        	-1.180509e-03	1.114375e+00	8.650168e-02	4.207033e-02	4.443135e-02
200.14        	-1.187297e-03	1.114525e+00	8.738021e-02	4.250281e-02	4.487740e-02
200.15        	-1.194077e-03	1.114616e+00	8.824610e-02	4.292897e-02	4.531713e-02
200.16        	-1.200848e-03	1.114651e+00	8.908153e-02	4.333992e-02	4.574161e-02
200.17        	-1.207610e-03	1.114696e+00	8.994031e-02	4.376255e-02	4.617777e-02
200.18        	-1.214362e-03	1.114824e+00	9.090418e-02	4.423773e-02	4.666645e-02
200.19        	-1.221105e-03	1.114903e+00	9.183489e-02	4.469634e-02	4.713855e-02
200.2         	-1.227838e-03	1.114924e+00	9.271836e-02	4.513134e-02	4.758702e-02
200.21        	-1.234561e-03	1.114888e+00	9.355242e-02	4.554165e-02	4.801077e-02
200.22        	-1.241273e-03	1.115015e+00	9.460718e-02	4.606232e-02	4.854486e-02
200.23        	-1.247975e-03	1.115136e+00	9.569792e-02	4.660098e-02	4.909694e-02
200.24        	-1.254671e-03	1.121287e+00	9.621075e-02	4.685070e-02	4.936005e-02
200.25        	-1.261363e-03	1.119886e+00	9.725006e-02	4.736367e-02	4.988639e-02
200.26        	-1.268048e-03	1.120474e+00	9.834197e-02	4.790294e-02	5.043903e-02
200.27        	-1.274727e-03	1.120575e+00	9.944139e-02	4.844597e-02	5.099542e-02
200.28        	-1.281399e-03	1.120635e+00	1.004808e-01	4.895902e-02	5.152182e-02
200.29        	-1.288065e-03	1.120605e+00	1.015474e-01	4.948561e-02	5.206174e-02
200.3         	-1.294724e-03	1.120558e+00	1.024989e-01	4.995473e-02	5.254417e-02
200.31        	-1.301375e-03	1.120484e+00	1.034872e-01	5.044221e-02	5.304496e-02
200.32        	-1.308019e-03	1.120479e+00	1.045046e-01	5.094427e-02	5.356031e-02
200.33        	-1.314654e-03	1.120452e+00	1.055260e-01	5.144833e-02	5.407764e-02
200.34        	-1.321282e-03	1.120407e+00	1.065532e-01	5.195529e-02	5.459786e-02
200.35        	-1.327901e-03	1.120408e+00	1.075728e-01	5.245851e-02	5.511431e-02
200.36        	-1.334512e-03	1.120365e+00	1.086042e-01	5.296760e-02	5.563662e-02
200.37        	-1.341114e-03	1.120346e+00	1.096376e-01	5.347767e-02	5.615990e-02
200.38        	-1.347707e-03	1.120254e+00	1.106942e-01	5.399941e-02	5.669482e-02
200.39        	-1.354290e-03	1.120156e+00	1.117682e-01	5.452982e-02	5.723840e-02
200.4         	-1.360865e-03	1.120044e+00	1.129176e-01	5.509794e-02	5.781967e-02
200.41        	-1.367431e-03	1.119817e+00	1.140426e-01	5.565385e-02	5.838871e-02
200.42        	-1.373987e-03	1.119500e+00	1.152397e-01	5.624586e-02	5.899384e-02
200.43        	-1.380535e-03	1.119090e+00	1.166420e-01	5.694047e-02	5.970154e-02
200.44        	-1.387075e-03	1.119142e+00	1.175483e-01	5.738710e-02	6.016125e-02
200.45        	-1.393605e-03	1.119168e+00	1.183384e-01	5.777561e-02	6.056282e-02
200.46        	-1.400125e-03	1.119268e+00	1.192239e-01	5.821182e-02	6.101207e-02
200.47        	-1.406633e-03	1.119279e+00	1.200956e-01	5.864115e-02	6.145441e-02
200.48        	-1.413130e-03	1.119326e+00	1.210028e-01	5.908825e-02	6.191451e-02
200.49        	-1.419616e-03	1.119336e+00	1.219175e-01	5.953912e-02	6.237835e-02
200.5         	-1.426089e-03	1.119349e+00	1.228378e-01	5.999281e-02	6.284499e-02
200.51        	-1.432549e-03	1.119522e+00	1.235672e-01	6.035103e-02	6.321613e-02
200.52        	-1.438996e-03	1.119751e+00	1.242204e-01	6.067120e-02	6.354919e-02
200.53        	-1.445428e-03	1.119774e+00	1.250889e-01	6.109902e-02	6.398988e-02
200.54        	-1.451845e-03	1.119772e+00	1.259641e-01	6.153022e-02	6.443391e-02
200.55        	-1.458247e-03	1.119913e+00	1.267228e-01	6.190314e-02	6.481964e-02
200.56        	-1.464634e-03	1.120095e+00	1.275363e-01	6.230354e-02	6.523280e-02
200.57        	-1.471004e-03	1.120185e+00	1.283822e-01	6.272012e-02	6.566213e-02
200.58        	-1.477358e-03	1.120241e+00	1.292215e-01	6.313340e-02	6.608812e-02
200.59        	-1.483694e-03	1.120288e+00	1.300629e-01	6.354774e-02	6.651513e-02
200.6         	-1.490013e-03	1.120343e+00	1.309559e-01	6.398792e-02	6.696794e-02
200.61        	-1.496315e-03	1.120399e+00	1.318711e-01	6.443925e-02	6.743188e-02
200.62        	-1.502598e-03	1.120462e+00	1.328249e-01	6.490988e-02	6.791507e-02
200.63        	-1.508864e-03	1.120553e+00	1.338346e-01	6.540845e-02	6.842618e-02
200.64        	-1.515110e-03	1.120739e+00	1.351603e-01	6.606504e-02	6.909526e-02
200.65        	-1.521339e-03	1.120635e+00	1.354422e-01	6.619976e-02	6.924244e-02
200.66        	-1.527548e-03	1.120641e+00	1.359371e-01	6.644100e-02	6.949610e-02
200.67        	-1.533740e-03	1.120378e+00	1.367011e-01	6.681681e-02	6.988429e-02
200.68        	-1.539911e-03	1.118762e+00	1.370316e-01	6.697591e-02	7.005573e-02
200.69        	-1.546062e-03	1.118556e+00	1.375124e-01	6.721015e-02	7.030227e-02
200.7         	-1.552192e-03	1.118674e+00	1.380073e-01	6.745147e-02	7.055585e-02
200.71        	-1.558302e-03	1.118713e+00	1.387213e-01	6.780237e-02	7.091897e-02
200.72        	-1.564393e-03	1.118554e+00	1.397891e-01	6.833017e-02	7.145895e-02
200.73        	-1.570463e-03	1.118436e+00	1.403068e-01	6.858295e-02	7.172388e-02
200.74        	-1.576513e-03	1.116389e+00	1.403750e-01	6.861099e-02	7.176402e-02
200.75        	-1.582540e-03	1.116562e+00	1.418476e-01	6.934128e-02	7.250636e-02
200.76        	-1.588545e-03	1.117643e+00	1.433785e-01	7.010072e-02	7.327781e-02
200.77        	-1.594529e-03	1.118756e+00	1.454539e-01	7.113242e-02	7.432148e-02
200.78        	-1.600492e-03	1.119113e+00	1.463401e-01	7.156954e-02	7.477052e-02
200.79        	-1.606433e-03	1.119353e+00	1.472066e-01	7.199688e-02	7.520975e-02
200.8         	-1.612353e-03	1.119516e+00	1.480608e-01	7.241804e-02	7.564275e-02
200.81        	-1.618252e-03	1.119622e+00	1.488580e-01	7.281075e-02	7.604726e-02
200.82        	-1.624130e-03	1.119704e+00	1.498272e-01	7.328946e-02	7.653772e-02
200.83        	-1.629987e-03	1.119804e+00	1.509764e-01	7.385820e-02	7.711817e-02
200.84        	-1.635823e-03	1.119844e+00	1.519181e-01	7.432322e-02	7.759486e-02
200.85        	-1.641637e-03	1.119867e+00	1.528486e-01	7.478268e-02	7.806595e-02
200.86        	-1.647429e-03	1.119909e+00	1.537718e-01	7.523847e-02	7.853333e-02
200.87        	-1.653199e-03	1.119908e+00	1.547133e-01	7.570343e-02	7.900983e-02
200.88        	-1.658948e-03	1.119921e+00	1.556467e-01	7.616442e-02	7.948231e-02
200.89        	-1.664674e-03	1.119913e+00	1.566086e-01	7.663961e-02	7.996896e-02
200.9         	-1.670379e-03	1.119893e+00	1.575776e-01	7.711844e-02	8.045920e-02
200.91        	-1.676061e-03	1.119853e+00	1.585921e-01	7.762001e-02	8.097213e-02
200.92        	-1.681720e-03	1.119812e+00	1.595861e-01	7.811135e-02	8.147479e-02
200.93        	-1.687357e-03	1.119978e+00	1.602297e-01	7.842749e-02	8.180220e-02
200.94        	-1.692972e-03	1.119984e+00	1.611108e-01	7.886243e-02	8.224837e-02
200.95        	-1.698564e-03	1.119954e+00	1.621000e-01	7.935144e-02	8.274857e-02
200.96        	-1.704133e-03	1.119908e+00	1.630233e-01	7.980750e-02	8.321577e-02
200.97        	-1.709679e-03	1.119859e+00	1.640688e-01	8.032472e-02	8.374408e-02
200.98        	-1.715202e-03	1.119787e+00	1.649698e-01	8.076968e-02	8.420008e-02
200.99        	-1.720702e-03	1.119713e+00	1.660619e-01	8.131025e-02	8.475165e-02
201           	-1.726178e-03	1.119605e+00	1.669730e-01	8.176034e-02	8.521269e-02
201.01        	-1.731631e-03	1.119486e+00	1.681154e-01	8.232607e-02	8.578934e-02
201.02        	-1.737059e-03	1.119315e+00	1.690484e-01	8.278714e-02	8.626126e-02
201.03        	-1.742464e-03	1.119070e+00	1.702975e-01	8.340626e-02	8.689119e-02
201.04        	-1.747844e-03	1.118713e+00	1.713545e-01	8.392942e-02	8.742511e-02
201.05        	-1.753199e-03	1.118242e+00	1.727919e-01	8.464275e-02	8.814915e-02
201.06        	-1.758529e-03	1.117403e+00	1.742030e-01	8.534297e-02	8.886003e-02
201.07        	-1.763833e-03	1.117327e+00	1.753633e-01	8.591783e-02	8.944549e-02
201.08        	-1.769112e-03	1.119623e+00	1.744874e-01	8.547459e-02	8.901282e-02
201.09        	-1.774368e-03	1.120846e+00	1.747608e-01	8.560601e-02	8.915475e-02
201.1         	-1.779601e-03	1.121476e+00	1.750630e-01	8.575189e-02	8.931110e-02
201.11        	-1.784813e-03	1.124803e+00	1.737556e-01	8.509297e-02	8.866260e-02
201.12        	-1.790004e-03	1.124829e+00	1.744678e-01	8.544390e-02	8.902390e-02
201.13        	-1.795174e-03	1.124745e+00	1.755695e-01	8.598958e-02	8.957993e-02
201.14        	-1.800321e-03	1.124575e+00	1.763068e-01	8.635306e-02	8.995371e-02
201.15        	-1.805446e-03	1.124511e+00	1.773361e-01	8.686259e-02	9.047348e-02
201.16        	-1.810549e-03	1.124422e+00	1.780427e-01	8.721081e-02	9.083191e-02
201.17        	-1.815629e-03	1.124381e+00	1.791369e-01	8.775283e-02	9.138409e-02
201.18        	-1.820686e-03	1.124334e+00	1.797678e-01	8.806319e-02	9.170456e-02
201.19        	-1.825720e-03	1.124114e+00	1.809181e-01	8.863334e-02	9.228478e-02
201.2         	-1.830730e-03	1.124076e+00	1.816308e-01	8.898466e-02	9.264612e-02
201.21        	-1.835717e-03	1.124209e+00	1.828415e-01	8.958505e-02	9.325649e-02
201.22        	-1.840681e-03	1.124235e+00	1.835905e-01	8.995456e-02	9.363592e-02
201.23        	-1.845621e-03	1.124178e+00	1.846309e-01	9.046984e-02	9.416108e-02
201.24        	-1.850538e-03	1.124142e+00	1.853317e-01	9.081530e-02	9.451638e-02
201.25        	-1.855431e-03	1.124159e+00	1.863658e-01	9.132747e-02	9.503834e-02
201.26        	-1.860300e-03	1.124178e+00	1.871068e-01	9.169312e-02	9.541372e-02
201.27        	-1.865146e-03	1.124220e+00	1.881114e-01	9.219054e-02	9.592084e-02
201.28        	-1.869967e-03	1.124217e+00	1.888567e-01	9.255840e-02	9.629833e-02
201.29        	-1.874764e-03	1.124233e+00	1.898117e-01	9.303109e-02	9.678062e-02
201.3         	-1.879537e-03	1.124243e+00	1.905226e-01	9.338174e-02	9.714081e-02
201.31        	-1.884286e-03	1.124259e+00	1.913776e-01	9.380452e-02	9.757309e-02
201.32        	-1.889010e-03	1.124162e+00	1.922077e-01	9.421486e-02	9.799288e-02
201.33        	-1.893710e-03	1.124373e+00	1.936345e-01	9.492355e-02	9.871097e-02
201.34        	-1.898385e-03	1.124400e+00	1.946508e-01	9.542703e-02	9.922380e-02
201.35        	-1.903035e-03	1.124339e+00	1.961595e-01	9.617672e-02	9.998279e-02
201.36        	-1.907659e-03	1.124435e+00	1.968547e-01	9.651968e-02	1.003350e-01
201.37        	-1.912258e-03	1.124707e+00	1.968116e-01	9.649353e-02	1.003180e-01
201.38        	-1.916832e-03	1.124799e+00	1.975755e-01	9.687092e-02	1.007046e-01
201.39        	-1.921381e-03	1.124833e+00	1.983996e-01	9.727841e-02	1.011212e-01
201.4         	-1.925905e-03	1.124861e+00	1.992046e-01	9.767637e-02	1.015282e-01
201.41        	-1.930403e-03	1.124930e+00	2.000733e-01	9.810623e-02	1.019670e-01
201.42        	-1.934876e-03	1.124978e+00	2.009072e-01	9.851870e-02	1.023885e-01
201.43        	-1.939324e-03	1.125082e+00	2.018073e-01	9.896432e-02	1.028430e-01
201.44        	-1.943746e-03	1.125193e+00	2.027038e-01	9.940817e-02	1.032957e-01
201.45        	-1.948142e-03	1.125267e+00	2.035828e-01	9.984327e-02	1.037396e-01
201.46        	-1.952512e-03	1.125344e+00	2.044640e-01	1.002795e-01	1.041845e-01
201.47        	-1.956856e-03	1.125437e+00	2.053934e-01	1.007398e-01	1.046535e-01
201.48        	-1.961174e-03	1.125607e+00	2.064262e-01	1.012519e-01	1.051743e-01
201.49        	-1.965465e-03	1.125542e+00	2.069329e-01	1.015010e-01	1.054319e-01
201.5         	-1.969731e-03	1.125491e+00	2.075257e-01	1.017931e-01	1.057326e-01
201.51        	-1.973970e-03	1.125536e+00	2.083409e-01	1.021965e-01	1.061444e-01
201.52        	-1.978183e-03	1.125536e+00	2.091050e-01	1.025743e-01	1.065307e-01
201.53        	-1.982370e-03	1.125594e+00	2.099338e-01	1.029845e-01	1.069493e-01
201.54        	-1.986531e-03	1.125685e+00	2.108103e-01	1.034186e-01	1.073917e-01
201.55        	-1.990665e-03	1.125768e+00	2.116599e-01	1.038393e-01	1.078206e-01
201.56        	-1.994772e-03	1.125845e+00	2.125003e-01	1.042554e-01	1.082449e-01
201.57        	-1.998853e-03	1.125915e+00	2.133329e-01	1.046676e-01	1.086653e-01
201.58        	-2.002906e-03	1.125966e+00	2.141582e-01	1.050762e-01	1.090820e-01
201.59        	-2.006933e-03	1.125949e+00	2.149811e-01	1.054836e-01	1.094975e-01
201.6         	-2.010933e-03	1.126194e+00	2.157198e-01	1.058490e-01	1.098708e-01
201.61        	-2.014906e-03	1.126372e+00	2.167076e-01	1.063389e-01	1.103687e-01
201.62        	-2.018852e-03	1.126541e+00	2.175692e-01	1.067657e-01	1.108034e-01
201.63        	-2.022770e-03	1.126614e+00	2.184852e-01	1.072198e-01	1.112653e-01
201.64        	-2.026661e-03	1.126708e+00	2.191521e-01	1.075494e-01	1.116027e-01
201.65        	-2.030525e-03	1.126784e+00	2.201282e-01	1.080336e-01	1.120946e-01
201.66        	-2.034361e-03	1.126886e+00	2.207461e-01	1.083387e-01	1.124074e-01
201.67        	-2.038169e-03	1.126965e+00	2.217676e-01	1.088456e-01	1.129220e-01
201.68        	-2.041950e-03	1.127074e+00	2.223358e-01	1.091259e-01	1.132098e-01
201.69        	-2.045703e-03	1.127153e+00	2.234010e-01	1.096548e-01	1.137462e-01
201.7         	-2.049429e-03	1.127268e+00	2.239222e-01	1.099117e-01	1.140105e-01
201.71        	-2.053126e-03	1.127347e+00	2.250272e-01	1.104605e-01	1.145667e-01
201.72        	-2.056796e-03	1.127467e+00	2.255032e-01	1.106948e-01	1.148084e-01
201.73        	-2.060437e-03	1.127546e+00	2.266455e-01	1.112623e-01	1.153832e-01
201.74        	-2.064050e-03	1.127670e+00	2.270785e-01	1.114752e-01	1.156033e-01
201.75        	-2.067636e-03	1.127749e+00	2.282577e-01	1.120612e-01	1.161965e-01
201.76        	-2.071193e-03	1.127878e+00	2.286483e-01	1.122530e-01	1.163954e-01
201.77        	-2.074721e-03	1.127956e+00	2.298609e-01	1.128557e-01	1.170052e-01
201.78        	-2.078222e-03	1.128087e+00	2.302163e-01	1.130299e-01	1.171863e-01
201.79        	-2.081694e-03	1.128163e+00	2.314480e-01	1.136423e-01	1.178057e-01
201.8         	-2.085137e-03	1.128296e+00	2.317369e-01	1.137833e-01	1.179536e-01
201.81        	-2.088553e-03	1.128373e+00	2.330522e-01	1.144376e-01	1.186147e-01
201.82        	-2.091939e-03	1.128511e+00	2.333166e-01	1.145663e-01	1.187502e-01
201.83        	-2.095297e-03	1.128585e+00	2.346111e-01	1.152103e-01	1.194009e-01
201.84        	-2.098626e-03	1.128725e+00	2.348561e-01	1.153294e-01	1.195267e-01
201.85        	-2.101926e-03	1.128792e+00	2.361693e-01	1.159827e-01	1.201866e-01
201.86        	-2.105198e-03	1.128934e+00	2.363740e-01	1.160818e-01	1.202922e-01
201.87        	-2.108440e-03	1.129011e+00	2.377250e-01	1.167541e-01	1.209710e-01
201.88        	-2.111654e-03	1.129164e+00	2.379129e-01	1.168448e-01	1.210681e-01
201.89        	-2.114838e-03	1.129250e+00	2.393643e-01	1.175673e-01	1.217970e-01
201.9         	-2.117994e-03	1.129354e+00	2.393723e-01	1.175682e-01	1.218042e-01
201.91        	-2.121120e-03	1.129390e+00	2.407520e-01	1.182549e-01	1.224971e-01
201.92        	-2.124217e-03	1.129441e+00	2.408488e-01	1.183002e-01	1.225486e-01
201.93        	-2.127285e-03	1.129624e+00	2.422288e-01	1.189871e-01	1.232417e-01
201.94        	-2.130324e-03	1.130030e+00	2.422465e-01	1.189929e-01	1.232536e-01
201.95        	-2.133334e-03	1.130077e+00	2.434809e-01	1.196071e-01	1.238738e-01
201.96        	-2.136315e-03	1.130208e+00	2.435619e-01	1.196446e-01	1.239173e-01
201.97        	-2.139266e-03	1.130207e+00	2.452998e-01	1.205106e-01	1.247892e-01
201.98        	-2.142188e-03	1.130446e+00	2.453920e-01	1.205538e-01	1.248382e-01
201.99        	-2.145080e-03	1.130596e+00	2.469552e-01	1.213325e-01	1.256227e-01
202           	-2.147942e-03	1.130769e+00	2.470068e-01	1.213554e-01	1.256513e-01
202.01        	-2.150775e-03	1.130846e+00	2.485204e-01	1.221094e-01	1.264110e-01
202.02        	-2.153579e-03	1.131019e+00	2.485558e-01	1.221243e-01	1.264315e-01
202.03        	-2.156352e-03	1.131115e+00	2.500637e-01	1.228755e-01	1.271882e-01
202.04        	-2.159096e-03	1.131318e+00	2.501485e-01	1.229152e-01	1.272334e-01
202.05        	-2.161809e-03	1.131484e+00	2.517099e-01	1.236932e-01	1.280168e-01
202.06        	-2.164493e-03	1.131590e+00	2.516964e-01	1.236837e-01	1.280127e-01
202.07        	-2.167147e-03	1.131232e+00	2.526180e-01	1.241419e-01	1.284762e-01
202.08        	-2.169771e-03	1.131274e+00	2.523924e-01	1.240264e-01	1.283660e-01
202.09        	-2.172365e-03	1.131976e+00	2.542142e-01	1.249347e-01	1.292795e-01
202.1         	-2.174930e-03	1.132149e+00	2.543760e-01	1.250131e-01	1.293630e-01
202.11        	-2.177465e-03	1.132332e+00	2.557394e-01	1.256922e-01	1.300472e-01
202.12        	-2.179970e-03	1.132371e+00	2.558980e-01	1.257690e-01	1.301290e-01
202.13        	-2.182445e-03	1.132325e+00	2.569890e-01	1.263121e-01	1.306770e-01
202.14        	-2.184889e-03	1.132422e+00	2.573571e-01	1.264936e-01	1.308634e-01
202.15        	-2.187304e-03	1.132538e+00	2.582708e-01	1.269481e-01	1.313227e-01
202.16        	-2.189688e-03	1.132661e+00	2.586214e-01	1.271210e-01	1.315004e-01
202.17        	-2.192042e-03	1.132717e+00	2.596356e-01	1.276258e-01	1.320098e-01
202.18        	-2.194365e-03	1.132700e+00	2.600679e-01	1.278396e-01	1.322283e-01
202.19        	-2.196658e-03	1.133234e+00	2.610068e-01	1.283067e-01	1.327000e-01
202.2         	-2.198921e-03	1.133468e+00	2.614603e-01	1.285312e-01	1.329291e-01
202.21        	-2.201153e-03	1.133583e+00	2.623448e-01	1.289712e-01	1.333736e-01
202.22        	-2.203356e-03	1.133741e+00	2.628597e-01	1.292265e-01	1.336332e-01
202.23        	-2.205527e-03	1.133841e+00	2.636838e-01	1.296364e-01	1.340474e-01
202.24        	-2.207668e-03	1.133974e+00	2.642339e-01	1.299093e-01	1.343246e-01
202.25        	-2.209779e-03	1.134379e+00	2.651150e-01	1.303477e-01	1.347673e-01
202.26        	-2.211859e-03	1.134622e+00	2.656810e-01	1.306286e-01	1.350523e-01
202.27        	-2.213908e-03	1.134926e+00	2.663878e-01	1.309800e-01	1.354078e-01
202.28        	-2.215927e-03	1.135451e+00	2.669108e-01	1.312395e-01	1.356713e-01
202.29        	-2.217916e-03	1.135047e+00	2.674376e-01	1.315009e-01	1.359367e-01
202.3         	-2.219874e-03	1.133898e+00	2.684433e-01	1.320018e-01	1.364415e-01
202.31        	-2.221800e-03	1.133279e+00	2.696408e-01	1.325986e-01	1.370422e-01
202.32        	-2.223694e-03	1.134154e+00	2.704677e-01	1.330102e-01	1.374575e-01
202.33        	-2.225557e-03	1.134567e+00	2.711458e-01	1.333473e-01	1.377985e-01
202.34        	-2.227389e-03	1.134605e+00	2.717468e-01	1.336460e-01	1.381008e-01
202.35        	-2.229189e-03	1.134794e+00	2.723704e-01	1.339560e-01	1.384144e-01
202.36        	-2.230958e-03	1.134935e+00	2.728943e-01	1.342162e-01	1.386781e-01
202.37        	-2.232696e-03	1.135072e+00	2.733645e-01	1.344495e-01	1.389149e-01
202.38        	-2.234403e-03	1.135227e+00	2.740167e-01	1.347739e-01	1.392428e-01
202.39        	-2.236079e-03	1.135376e+00	2.750470e-01	1.352874e-01	1.397596e-01
202.4         	-2.237723e-03	1.135349e+00	2.757158e-01	1.356202e-01	1.400956e-01
202.41        	-2.239336e-03	1.136020e+00	2.763295e-01	1.359254e-01	1.404041e-01
202.42        	-2.240918e-03	1.136319e+00	2.770062e-01	1.362622e-01	1.407440e-01
202.43        	-2.242468e-03	1.136479e+00	2.776909e-01	1.366030e-01	1.410879e-01
202.44        	-2.243988e-03	1.136640e+00	2.783605e-01	1.369363e-01	1.414243e-01
202.45        	-2.245476e-03	1.136784e+00	2.790236e-01	1.372663e-01	1.417573e-01
202.46        	-2.246932e-03	1.137009e+00	2.797198e-01	1.376129e-01	1.421068e-01
202.47        	-2.248358e-03	1.137292e+00	2.804334e-01	1.379683e-01	1.424650e-01
202.48        	-2.249752e-03	1.137655e+00	2.811272e-01	1.383138e-01	1.428133e-01
202.49        	-2.251116e-03	1.137789e+00	2.819261e-01	1.387119e-01	1.432141e-01
202.5         	-2.252449e-03	1.137925e+00	2.827682e-01	1.391316e-01	1.436365e-01
202.51        	-2.253750e-03	1.138117e+00	2.834985e-01	1.394955e-01	1.440030e-01
202.52        	-2.255020e-03	1.138327e+00	2.842633e-01	1.398766e-01	1.443867e-01
202.53        	-2.256260e-03	1.138573e+00	2.850504e-01	1.402689e-01	1.447814e-01
202.54        	-2.257468e-03	1.138938e+00	2.859574e-01	1.407212e-01	1.452362e-01
202.55        	-2.258645e-03	1.139389e+00	2.871036e-01	1.412932e-01	1.458105e-01
202.56        	-2.259792e-03	1.139472e+00	2.886098e-01	1.420451e-01	1.465647e-01
202.57        	-2.260907e-03	1.138503e+00	2.881607e-01	1.418194e-01	1.463412e-01
202.58        	-2.261992e-03	1.138078e+00	2.882151e-01	1.418455e-01	1.463695e-01
202.59        	-2.263046e-03	1.138047e+00	2.888178e-01	1.421459e-01	1.466720e-01
202.6         	-2.264069e-03	1.137892e+00	2.896022e-01	1.425370e-01	1.470651e-01
202.61        	-2.265063e-03	1.138494e+00	2.902745e-01	1.428722e-01	1.474023e-01
202.62        	-2.266026e-03	1.138581e+00	2.912784e-01	1.433732e-01	1.479052e-01
202.63        	-2.266962e-03	1.138439e+00	2.921999e-01	1.438330e-01	1.483669e-01
202.64        	-2.267869e-03	1.138387e+00	2.931867e-01	1.443255e-01	1.488612e-01
202.65        	-2.268747e-03	1.138798e+00	2.935554e-01	1.445090e-01	1.490465e-01
202.66        	-2.269596e-03	1.139182e+00	2.941004e-01	1.447806e-01	1.493198e-01
202.67        	-2.270414e-03	1.139524e+00	2.946236e-01	1.450414e-01	1.495822e-01
202.68        	-2.271202e-03	1.139799e+00	2.952414e-01	1.453495e-01	1.498919e-01
202.69        	-2.271959e-03	1.140048e+00	2.958168e-01	1.456364e-01	1.501804e-01
202.7         	-2.272685e-03	1.140301e+00	2.964879e-01	1.459713e-01	1.505166e-01
202.71        	-2.273381e-03	1.140542e+00	2.971295e-01	1.462913e-01	1.508381e-01
202.72        	-2.274045e-03	1.140655e+00	2.978869e-01	1.466694e-01	1.512175e-01
202.73        	-2.274678e-03	1.140798e+00	2.986115e-01	1.470311e-01	1.515804e-01
202.74        	-2.275281e-03	1.140943e+00	2.992689e-01	1.473592e-01	1.519097e-01
202.75        	-2.275852e-03	1.141139e+00	2.998302e-01	1.476393e-01	1.521910e-01
202.76        	-2.276392e-03	1.141759e+00	3.001317e-01	1.477895e-01	1.523422e-01
202.77        	-2.276898e-03	1.142500e+00	3.001523e-01	1.477992e-01	1.523530e-01
202.78        	-2.277369e-03	1.142719e+00	3.007235e-01	1.480844e-01	1.526391e-01
202.79        	-2.277806e-03	1.142913e+00	3.012908e-01	1.483676e-01	1.529232e-01
202.8         	-2.278208e-03	1.143746e+00	3.017403e-01	1.485919e-01	1.531483e-01
202.81        	-2.278576e-03	1.143989e+00	3.023229e-01	1.488829e-01	1.534400e-01
202.82        	-2.278908e-03	1.144207e+00	3.029076e-01	1.491749e-01	1.537327e-01
202.83        	-2.279205e-03	1.144503e+00	3.035581e-01	1.494998e-01	1.540582e-01
202.84        	-2.279467e-03	1.144901e+00	3.043234e-01	1.498823e-01	1.544412e-01
202.85        	-2.279694e-03	1.145335e+00	3.053148e-01	1.503777e-01	1.549371e-01
202.86        	-2.279885e-03	1.145711e+00	3.054794e-01	1.504598e-01	1.550196e-01
202.87        	-2.280041e-03	1.146045e+00	3.058327e-01	1.506363e-01	1.551964e-01
202.88        	-2.280162e-03	1.146378e+00	3.063544e-01	1.508971e-01	1.554574e-01
202.89        	-2.280248e-03	1.146755e+00	3.068510e-01	1.511452e-01	1.557057e-01
202.9         	-2.280298e-03	1.147337e+00	3.069381e-01	1.511888e-01	1.557494e-01
202.91        	-2.280313e-03	1.147517e+00	3.079121e-01	1.516757e-01	1.562364e-01
202.92        	-2.280293e-03	1.147180e+00	3.101100e-01	1.527747e-01	1.573353e-01
202.93        	-2.280236e-03	1.147450e+00	3.109372e-01	1.531884e-01	1.577488e-01
202.94        	-2.280142e-03	1.147725e+00	3.118138e-01	1.536268e-01	1.581870e-01
202.95        	-2.280012e-03	1.147999e+00	3.127108e-01	1.540754e-01	1.586354e-01
202.96        	-2.279845e-03	1.148219e+00	3.136650e-01	1.545527e-01	1.591123e-01
202.97        	-2.279642e-03	1.148545e+00	3.145570e-01	1.549988e-01	1.595581e-01
202.98        	-2.279402e-03	1.149484e+00	3.153974e-01	1.554193e-01	1.599781e-01
202.99        	-2.279125e-03	1.149956e+00	3.164951e-01	1.559684e-01	1.605267e-01
203           	-2.278812e-03	1.150533e+00	3.176694e-01	1.565559e-01	1.611135e-01
203.01        	-2.278462e-03	1.149602e+00	3.177403e-01	1.565917e-01	1.611486e-01
203.02        	-2.278077e-03	1.148183e+00	3.174771e-01	1.564605e-01	1.610166e-01
203.03        	-2.277655e-03	1.147351e+00	3.174752e-01	1.564599e-01	1.610153e-01
203.04        	-2.277197e-03	1.146914e+00	3.176758e-01	1.565607e-01	1.611151e-01
203.05        	-2.276703e-03	1.146648e+00	3.179572e-01	1.567019e-01	1.612553e-01
203.06        	-2.276173e-03	1.146486e+00	3.182827e-01	1.568652e-01	1.614175e-01
203.07        	-2.275606e-03	1.146390e+00	3.186265e-01	1.570377e-01	1.615889e-01
203.08        	-2.275004e-03	1.146354e+00	3.189939e-01	1.572220e-01	1.617720e-01
203.09        	-2.274364e-03	1.146338e+00	3.193728e-01	1.574120e-01	1.619607e-01
203.1         	-2.273688e-03	1.146308e+00	3.197509e-01	1.576018e-01	1.621492e-01
203.11        	-2.272976e-03	1.146397e+00	3.201918e-01	1.578229e-01	1.623689e-01
203.12        	-2.272227e-03	1.146625e+00	3.207217e-01	1.580886e-01	1.626331e-01
203.13        	-2.271441e-03	1.146696e+00	3.212727e-01	1.583649e-01	1.629078e-01
203.14        	-2.270618e-03	1.146612e+00	3.218050e-01	1.586319e-01	1.631731e-01
203.15        	-2.269758e-03	1.147093e+00	3.221940e-01	1.588272e-01	1.633667e-01
203.16        	-2.268861e-03	1.147981e+00	3.226817e-01	1.590720e-01	1.636097e-01
203.17        	-2.267928e-03	1.148462e+00	3.233109e-01	1.593875e-01	1.639234e-01
203.18        	-2.266957e-03	1.148873e+00	3.240116e-01	1.597388e-01	1.642728e-01
203.19        	-2.265950e-03	1.149432e+00	3.248339e-01	1.601510e-01	1.646829e-01
203.2         	-2.264904e-03	1.150351e+00	3.260883e-01	1.607792e-01	1.653090e-01
203.21        	-2.263822e-03	1.150600e+00	3.270255e-01	1.612489e-01	1.657766e-01
203.22        	-2.262702e-03	1.149885e+00	3.271524e-01	1.613135e-01	1.658389e-01
203.23        	-2.261545e-03	1.149211e+00	3.271697e-01	1.613233e-01	1.658464e-01
203.24        	-2.260353e-03	1.144932e+00	3.246530e-01	1.600661e-01	1.645868e-01
203.25        	-2.259126e-03	1.141065e+00	3.219697e-01	1.587257e-01	1.632440e-01
203.26        	-2.257865e-03	1.138330e+00	3.196449e-01	1.575646e-01	1.620803e-01
203.27        	-2.256571e-03	1.137018e+00	3.180894e-01	1.567881e-01	1.613013e-01
203.28        	-2.255242e-03	1.136413e+00	3.169192e-01	1.562043e-01	1.607148e-01
203.29        	-2.253880e-03	1.136226e+00	3.159942e-01	1.557432e-01	1.602510e-01
203.3         	-2.252482e-03	1.136421e+00	3.151978e-01	1.553464e-01	1.598514e-01
203.31        	-2.251050e-03	1.136640e+00	3.145653e-01	1.550316e-01	1.595337e-01
203.32        	-2.249582e-03	1.136776e+00	3.140899e-01	1.547954e-01	1.592945e-01
203.33        	-2.248079e-03	1.137895e+00	3.134859e-01	1.544949e-01	1.589910e-01
203.34        	-2.246540e-03	1.138460e+00	3.129655e-01	1.542362e-01	1.587293e-01
203.35        	-2.244965e-03	1.138994e+00	3.123704e-01	1.539402e-01	1.584302e-01
203.36        	-2.243355e-03	1.139465e+00	3.119533e-01	1.537333e-01	1.582200e-01
203.37        	-2.241709e-03	1.139923e+00	3.115322e-01	1.535244e-01	1.580078e-01
203.38        	-2.240026e-03	1.140403e+00	3.111075e-01	1.533137e-01	1.577938e-01
203.39        	-2.238309e-03	1.140989e+00	3.105740e-01	1.530487e-01	1.575253e-01
203.4         	-2.236555e-03	1.141435e+00	3.102602e-01	1.528936e-01	1.573667e-01
203.41        	-2.234766e-03	1.141611e+00	3.103635e-01	1.529470e-01	1.574165e-01
203.42        	-2.232941e-03	1.142067e+00	3.100980e-01	1.528160e-01	1.572819e-01
203.43        	-2.231081e-03	1.142502e+00	3.098556e-01	1.526967e-01	1.571589e-01
203.44        	-2.229184e-03	1.142892e+00	3.096675e-01	1.526046e-01	1.570629e-01
203.45        	-2.227253e-03	1.143628e+00	3.097463e-01	1.526459e-01	1.571004e-01
203.46        	-2.225286e-03	1.144200e+00	3.092772e-01	1.524133e-01	1.568639e-01
203.47        	-2.223284e-03	1.144812e+00	3.088458e-01	1.521996e-01	1.566462e-01
203.48        	-2.221248e-03	1.145313e+00	3.086201e-01	1.520888e-01	1.565313e-01
203.49        	-2.219178e-03	1.145600e+00	3.083878e-01	1.519747e-01	1.564131e-01
203.5         	-2.217073e-03	1.145622e+00	3.084080e-01	1.519869e-01	1.564211e-01
203.51        	-2.214934e-03	1.146183e+00	3.085176e-01	1.520439e-01	1.564737e-01
203.52        	-2.212760e-03	1.146629e+00	3.084581e-01	1.520163e-01	1.564418e-01
203.53        	-2.210552e-03	1.147044e+00	3.086736e-01	1.521262e-01	1.565473e-01
203.54        	-2.208310e-03	1.147363e+00	3.084801e-01	1.520317e-01	1.564483e-01
203.55        	-2.206033e-03	1.147543e+00	3.078112e-01	1.516996e-01	1.561116e-01
203.56        	-2.203723e-03	1.147849e+00	3.073605e-01	1.514765e-01	1.558840e-01
203.57        	-2.201380e-03	1.148444e+00	3.071704e-01	1.513838e-01	1.557866e-01
203.58        	-2.199005e-03	1.148743e+00	3.068936e-01	1.512478e-01	1.556458e-01
203.59        	-2.196596e-03	1.149047e+00	3.066818e-01	1.511443e-01	1.555375e-01
203.6         	-2.194155e-03	1.149332e+00	3.065194e-01	1.510655e-01	1.554538e-01
203.61        	-2.191681e-03	1.149623e+00	3.063810e-01	1.509988e-01	1.553822e-01
203.62        	-2.189176e-03	1.149899e+00	3.062319e-01	1.509268e-01	1.553051e-01
203.63        	-2.186638e-03	1.150164e+00	3.060935e-01	1.508601e-01	1.552334e-01
203.64        	-2.184069e-03	1.150420e+00	3.059666e-01	1.507992e-01	1.551674e-01